 vasp.4.6.35 3Apr08 complex 
 POSCAR found :  1 types and    1 ions
 LDA part: xc-table for Pade appr. of Perdew
 POSCAR, INCAR and KPOINTS ok, starting setup
 WARNING: wrap around errors must be expected
 FFT: planning ...           1
 reading WAVECAR
 entering main loop
       N       E                     dE             d eps       ncg     rms          rms(c)
DAV:   1     0.400236214850E+02    0.40024E+02   -0.72774E+03 11957   0.142E+03
DAV:   2    -0.122618615974E+02   -0.52285E+02   -0.50188E+02 11351   0.444E+02
DAV:   3    -0.127470101312E+02   -0.48515E+00   -0.48076E+00 11005   0.378E+01
DAV:   4    -0.127483807684E+02   -0.13706E-02   -0.13687E-02  9752   0.125E+00
DAV:   5    -0.127483939589E+02   -0.13191E-04   -0.13187E-04  9894   0.117E-01    0.448E+00
DAV:   6    -0.122369558638E+02    0.51144E+00   -0.48536E-01 11817   0.206E+01    0.209E+00
DAV:   7    -0.121019176458E+02    0.13504E+00   -0.27670E-01 11841   0.152E+01    0.341E-01
DAV:   8    -0.120976046672E+02    0.43130E-02   -0.65537E-03 11417   0.245E+00    0.503E-02
DAV:   9    -0.120974881676E+02    0.11650E-03   -0.33206E-04 11607   0.601E-01    0.763E-03
DAV:  10    -0.120974868361E+02    0.13316E-05   -0.40838E-06 10663   0.684E-02    0.980E-04
DAV:  11    -0.120974862282E+02    0.60789E-06   -0.13409E-07  4740   0.187E-02
   1 F= -.12097486E+02 E0= -.12097486E+02  d E =0.000000E+00
 writing wavefunctions
