 vasp.4.6.35 3Apr08 complex 
 POSCAR found :  1 types and    1 ions
 LDA part: xc-table for Pade appr. of Perdew
 found WAVECAR, reading the header
 WAVECAR: different cutoff or change in lattice found
 POSCAR, INCAR and KPOINTS ok, starting setup
 WARNING: wrap around errors must be expected
 FFT: planning ...           1
 reading WAVECAR
 the WAVECAR file was read sucessfully
 initial charge from wavefunction
 entering main loop
       N       E                     dE             d eps       ncg     rms          rms(c)
DAV:   1    -0.120885641684E+02   -0.12089E+02   -0.22301E-01  6281   0.199E+01    0.190E-01
DAV:   2    -0.120879908381E+02    0.57333E-03   -0.19143E-03 10258   0.125E+00    0.982E-02
DAV:   3    -0.120880055793E+02   -0.14741E-04   -0.30856E-04 10092   0.631E-01    0.424E-02
DAV:   4    -0.120880598903E+02   -0.54311E-04   -0.15160E-05  9839   0.109E-01    0.136E-03
DAV:   5    -0.120880603868E+02   -0.49651E-06   -0.15203E-07  3729   0.161E-02
   1 F= -.12088060E+02 E0= -.12088060E+02  d E =0.000000E+00
 writing wavefunctions
