 vasp.4.6.35 3Apr08 complex 
 POSCAR found :  1 types and    1 ions
 LDA part: xc-table for Pade appr. of Perdew
 found WAVECAR, reading the header
 WAVECAR: different cutoff or change in lattice found
 POSCAR, INCAR and KPOINTS ok, starting setup
 WARNING: wrap around errors must be expected
 FFT: planning ...           1
 reading WAVECAR
 the WAVECAR file was read sucessfully
 initial charge from wavefunction
 entering main loop
       N       E                     dE             d eps       ncg     rms          rms(c)
DAV:   1    -0.121253847161E+02   -0.12125E+02   -0.24643E-01  7266   0.212E+01    0.197E-01
DAV:   2    -0.121248121335E+02    0.57258E-03   -0.19883E-03 11835   0.128E+00    0.104E-01
DAV:   3    -0.121248271384E+02   -0.15005E-04   -0.33865E-04 11673   0.675E-01    0.437E-02
DAV:   4    -0.121248837017E+02   -0.56563E-04   -0.15948E-05 11443   0.115E-01    0.152E-03
DAV:   5    -0.121248844427E+02   -0.74109E-06   -0.13951E-07  4508   0.157E-02
   1 F= -.12124884E+02 E0= -.12124884E+02  d E =0.000000E+00
 writing wavefunctions
