 vasp.4.6.35 3Apr08 complex 
 POSCAR found :  1 types and    1 ions
 LDA part: xc-table for Pade appr. of Perdew
 found WAVECAR, reading the header
 WAVECAR: different cutoff or change in lattice found
 POSCAR, INCAR and KPOINTS ok, starting setup
 WARNING: wrap around errors must be expected
 FFT: planning ...           1
 reading WAVECAR
 the WAVECAR file was read sucessfully
 initial charge from wavefunction
 entering main loop
       N       E                     dE             d eps       ncg     rms          rms(c)
DAV:   1    -0.121018794904E+02   -0.12102E+02   -0.22670E-01  6299   0.201E+01    0.191E-01
DAV:   2    -0.121013051713E+02    0.57432E-03   -0.19295E-03 10248   0.125E+00    0.991E-02
DAV:   3    -0.121013192712E+02   -0.14100E-04   -0.31382E-04 10065   0.638E-01    0.426E-02
DAV:   4    -0.121013738239E+02   -0.54553E-04   -0.15270E-05  9839   0.110E-01    0.138E-03
DAV:   5    -0.121013743500E+02   -0.52604E-06   -0.14885E-07  3750   0.160E-02
   1 F= -.12101374E+02 E0= -.12101374E+02  d E =0.000000E+00
 writing wavefunctions
