 vasp.4.6.35 3Apr08 complex 
 POSCAR found :  1 types and    1 ions
 LDA part: xc-table for Pade appr. of Perdew
 found WAVECAR, reading the header
 WAVECAR: different cutoff or change in lattice found
 POSCAR, INCAR and KPOINTS ok, starting setup
 WARNING: wrap around errors must be expected
 FFT: planning ...           1
 reading WAVECAR
 the WAVECAR file was read sucessfully
 initial charge from wavefunction
 entering main loop
       N       E                     dE             d eps       ncg     rms          rms(c)
DAV:   1    -0.121203139006E+02   -0.12120E+02   -0.23508E-01  6316   0.206E+01    0.194E-01
DAV:   2    -0.121197309322E+02    0.58297E-03   -0.19536E-03 10243   0.127E+00    0.101E-01
DAV:   3    -0.121197429792E+02   -0.12047E-04   -0.32572E-04 10071   0.654E-01    0.431E-02
DAV:   4    -0.121197981142E+02   -0.55135E-04   -0.15568E-05  9833   0.112E-01    0.144E-03
DAV:   5    -0.121197986884E+02   -0.57412E-06   -0.14836E-07  3881   0.160E-02
   1 F= -.12119799E+02 E0= -.12119799E+02  d E =0.000000E+00
 writing wavefunctions
