 vasp.4.6.35 3Apr08 complex 
 POSCAR found :  1 types and    2 ions
 LDA part: xc-table for Pade appr. of Perdew
 POSCAR, INCAR and KPOINTS ok, starting setup
 WARNING: wrap around errors must be expected
 FFT: planning ...           2
 reading WAVECAR
 entering main loop
       N       E                     dE             d eps       ncg     rms          rms(c)
DAV:   1     0.149725568827E+03    0.14973E+03   -0.14314E+04 19588   0.186E+03
DAV:   2    -0.205269881623E+02   -0.17025E+03   -0.16556E+03 17166   0.814E+02
DAV:   3    -0.261175936964E+02   -0.55906E+01   -0.51167E+01 16300   0.184E+02
DAV:   4    -0.262823537069E+02   -0.16476E+00   -0.15978E+00 17786   0.159E+01
DAV:   5    -0.262846896168E+02   -0.23359E-02   -0.23058E-02 16516   0.259E+00    0.638E+00
DAV:   6    -0.251296822537E+02    0.11550E+01   -0.16783E+00 17978   0.281E+01    0.274E+00
DAV:   7    -0.248695975074E+02    0.26008E+00   -0.88037E-01 18028   0.191E+01    0.363E-01
DAV:   8    -0.248626882142E+02    0.69093E-02   -0.33987E-02 16168   0.399E+00    0.137E-01
DAV:   9    -0.248619638182E+02    0.72440E-03   -0.30194E-03 17340   0.130E+00    0.128E-02
DAV:  10    -0.248619716970E+02   -0.78788E-05   -0.90558E-05 17572   0.191E-01    0.773E-03
DAV:  11    -0.248619681151E+02    0.35819E-05   -0.24875E-06  7556   0.477E-02    0.129E-03
DAV:  12    -0.248619677924E+02    0.32276E-06   -0.48609E-06 11896   0.244E-02
   1 F= -.24861968E+02 E0= -.24861948E+02  d E =-.248620E+02
 curvature:   0.00 expect dE= 0.000E+00 dE for cont linesearch  0.000E+00
 trial: gam= 0.00000 g(F)=  0.888E-46 g(S)=  0.267E+00 ort = 0.000E+00 (trialstep = 0.100E+01)
 search vector abs. value=  0.267E+00
 bond charge predicted
       N       E                     dE             d eps       ncg     rms          rms(c)
DAV:   1    -0.280216346113E+02   -0.28022E+02   -0.13871E+02 13004   0.424E+02    0.973E+00
DAV:   2    -0.252690388117E+02    0.27526E+01   -0.74126E+00 17208   0.628E+01    0.487E+00
DAV:   3    -0.244309797038E+02    0.83806E+00   -0.43975E+00 16914   0.568E+01    0.122E+00
DAV:   4    -0.244517690208E+02   -0.20789E-01   -0.82865E-02 16474   0.354E+00    0.141E+00
DAV:   5    -0.244346460684E+02    0.17123E-01   -0.96720E-02 17178   0.442E+00    0.584E-01
DAV:   6    -0.244238189501E+02    0.10827E-01   -0.22996E-02 17572   0.392E+00    0.167E-01
DAV:   7    -0.244234066572E+02    0.41229E-03   -0.69915E-04 16816   0.327E-01    0.565E-02
DAV:   8    -0.244233765053E+02    0.30152E-04   -0.23842E-04 18204   0.296E-01    0.370E-03
DAV:   9    -0.244233785854E+02   -0.20801E-05   -0.47315E-06 11310   0.426E-02    0.192E-03
DAV:  10    -0.244233778955E+02    0.68987E-06   -0.36768E-07  5970   0.114E-02
   2 F= -.24423378E+02 E0= -.24423341E+02  d E =0.438590E+00
 trial-energy change:    0.438590  1 .order    0.471054   -0.267153    1.209260
 step:   0.2022(harm=  0.1809)  dis= 0.00000  next Energy=   -24.889250 (dE=-0.273E-01)
 bond charge predicted
       N       E                     dE             d eps       ncg     rms          rms(c)
DAV:   1    -0.276000673549E+02   -0.27600E+02   -0.70308E+01 15140   0.205E+02    0.843E+00
DAV:   2    -0.252445479879E+02    0.23555E+01   -0.48289E+00 16266   0.548E+01    0.332E+00
DAV:   3    -0.248707990769E+02    0.37375E+00   -0.16225E+00 16884   0.327E+01    0.665E-01
DAV:   4    -0.248920124200E+02   -0.21213E-01   -0.64980E-02 15732   0.269E+00    0.167E-01
DAV:   5    -0.248908088070E+02    0.12036E-02   -0.49247E-03 17328   0.181E+00    0.243E-02
DAV:   6    -0.248907920804E+02    0.16727E-04   -0.29298E-04 17660   0.417E-01    0.114E-02
DAV:   7    -0.248907966885E+02   -0.46081E-05   -0.12697E-05 15800   0.402E-02    0.234E-03
DAV:   8    -0.248907975478E+02   -0.85927E-06   -0.16912E-07  6376   0.108E-02
   3 F= -.24890798E+02 E0= -.24890806E+02  d E =-.288298E-01
 curvature:  -0.09 expect dE=-0.489E-03 dE for cont linesearch -0.688E-04
 ZBRENT: interpolating
 opt :   0.2115  next Energy=   -24.890864 (dE=-0.289E-01)
 bond charge predicted
       N       E                     dE             d eps       ncg     rms          rms(c)
DAV:   1    -0.248912291936E+02   -0.24891E+02   -0.10189E-02 14826   0.290E+00    0.962E-02
DAV:   2    -0.248909240693E+02    0.30512E-03   -0.64326E-04 16338   0.622E-01    0.402E-02
DAV:   3    -0.248908725842E+02    0.51485E-04   -0.25019E-04 16838   0.403E-01    0.842E-03
DAV:   4    -0.248908779942E+02   -0.54100E-05   -0.18439E-05 16116   0.597E-02    0.562E-03
DAV:   5    -0.248908762661E+02    0.17280E-05   -0.24724E-06  5468   0.560E-02    0.938E-04
DAV:   6    -0.248908763278E+02   -0.61695E-07   -0.30455E-06  9656   0.190E-02
   4 F= -.24890876E+02 E0= -.24890888E+02  d E =-.289085E-01
 curvature:  -0.09 expect dE=-0.452E-03 dE for cont linesearch -0.566E-06
 ZBRENT: interpolating
 opt :   0.2125  next Energy=   -24.890877 (dE=-0.289E-01)
 bond charge predicted
       N       E                     dE             d eps       ncg     rms          rms(c)
DAV:   1    -0.248908810333E+02   -0.24891E+02   -0.10663E-04 14926   0.294E-01    0.955E-03
DAV:   2    -0.248908778164E+02    0.32169E-05   -0.39692E-06  9292   0.614E-02    0.437E-03
DAV:   3    -0.248908772301E+02    0.58627E-06   -0.21194E-06  5284   0.491E-02
   5 F= -.24890877E+02 E0= -.24890889E+02  d E =-.289094E-01
 curvature:  -0.10 expect dE=-0.494E-03 dE for cont linesearch -0.236E-05
 ZBRENT: bisectioning
 opt :   0.6062  next Energy=   -24.994216 (dE=-0.132E+00)
 bond charge predicted
       N       E                     dE             d eps       ncg     rms          rms(c)
DAV:   1    -0.253825967713E+02   -0.25383E+02   -0.19242E+01 13942   0.139E+02    0.395E+00
DAV:   2    -0.248937526952E+02    0.48884E+00   -0.11350E+00 16608   0.254E+01    0.181E+00
DAV:   3    -0.247792881388E+02    0.11446E+00   -0.55128E-01 16810   0.194E+01    0.379E-01
DAV:   4    -0.247854269657E+02   -0.61388E-02   -0.48646E-02 17836   0.438E+00    0.301E-01
DAV:   5    -0.247820886639E+02    0.33383E-02   -0.12745E-02 16440   0.326E+00    0.120E-02
DAV:   6    -0.247821104924E+02   -0.21829E-04   -0.31079E-04 16730   0.227E-01    0.101E-02
DAV:   7    -0.247821088520E+02    0.16404E-05   -0.41201E-06 11104   0.403E-02    0.232E-03
DAV:   8    -0.247821091186E+02   -0.26654E-06   -0.70313E-07  6350   0.267E-02
   6 F= -.24782109E+02 E0= -.24782219E+02  d E =0.798587E-01
 curvature: ****** expect dE=-0.507E+04 dE for cont linesearch -0.489E+04
 ZBRENT: interpolating
 opt :   0.2143  next Energy=   -24.890880 (dE=-0.289E-01)
 bond charge predicted
       N       E                     dE             d eps       ncg     rms          rms(c)
DAV:   1    -0.255342931290E+02   -0.25534E+02   -0.17472E+01 15028   0.111E+02    0.409E+00
DAV:   2    -0.249818199758E+02    0.55247E+00   -0.11457E+00 16266   0.265E+01    0.167E+00
DAV:   3    -0.248864669557E+02    0.95353E-01   -0.42295E-01 16876   0.166E+01    0.334E-01
DAV:   4    -0.248918251584E+02   -0.53582E-02   -0.21231E-02 15330   0.162E+00    0.148E-01
DAV:   5    -0.248908643405E+02    0.96082E-03   -0.37273E-03 17134   0.158E+00    0.115E-02
DAV:   6    -0.248908746763E+02   -0.10336E-04   -0.10113E-04 17556   0.164E-01    0.569E-03
DAV:   7    -0.248908771788E+02   -0.25025E-05   -0.13908E-06  8124   0.265E-02    0.140E-03
DAV:   8    -0.248908776571E+02   -0.47833E-06   -0.42664E-07  6162   0.263E-02
   7 F= -.24890878E+02 E0= -.24890890E+02  d E =-.289099E-01
 curvature:   0.00 expect dE=-0.104E-07 dE for cont linesearch -0.132E-10
 ZBRENT: interpolating
 opt :   0.2137  next Energy=   -24.890878 (dE=-0.289E-01)
 bond charge predicted
       N       E                     dE             d eps       ncg     rms          rms(c)
DAV:   1    -0.248908803729E+02   -0.24891E+02   -0.51001E-05 15186   0.202E-01    0.664E-03
DAV:   2    -0.248908787440E+02    0.16289E-05   -0.15271E-06  5570   0.436E-02    0.311E-03
DAV:   3    -0.248908781248E+02    0.61920E-06   -0.11987E-06  5384   0.417E-02
   8 F= -.24890878E+02 E0= -.24890890E+02  d E =-.289103E-01
 curvature:  -0.06 expect dE=-0.332E-03 dE for cont linesearch -0.184E-05
 ZBRENT: interpolating
 opt :   0.2130  next Energy=   -24.890878 (dE=-0.289E-01)
 bond charge predicted
       N       E                     dE             d eps       ncg     rms          rms(c)
DAV:   1    -0.248908797678E+02   -0.24891E+02   -0.30562E-05 12708   0.184E-01    0.523E-03
DAV:   2    -0.248908788564E+02    0.91148E-06   -0.10354E-06  5300   0.335E-02
   9 F= -.24890879E+02 E0= -.24890891E+02  d E =-.289111E-01
 curvature:  -0.02 expect dE=-0.130E-03 dE for cont linesearch -0.473E-06
 ZBRENT: interpolating
 opt :   0.2128  next Energy=   -24.890879 (dE=-0.289E-01)
 bond charge predicted
       N       E                     dE             d eps       ncg     rms          rms(c)
DAV:   1    -0.248908786592E+02   -0.24891E+02   -0.67214E-06 11072   0.983E-02    0.240E-03
DAV:   2    -0.248908784402E+02    0.21902E-06   -0.26527E-07  5236   0.198E-02
  10 F= -.24890878E+02 E0= -.24890890E+02  d E =-.289106E-01
 curvature:  -0.02 expect dE=-0.822E-04 dE for cont linesearch -0.397E-07
 trial: gam= 0.02280 g(F)=  0.374E-44 g(S)=  0.527E-02 ort =-0.824E-03 (trialstep = 0.843E+00)
 search vector abs. value=  0.537E-02
 bond charge predicted
       N       E                     dE             d eps       ncg     rms          rms(c)
DAV:   1    -0.249167339369E+02   -0.24917E+02   -0.99281E-01 15568   0.206E+01    0.831E-01
DAV:   2    -0.248963255042E+02    0.20408E-01   -0.35712E-02 17966   0.251E+00    0.374E-01
DAV:   3    -0.248914023198E+02    0.49232E-02   -0.15559E-02 18404   0.144E+00    0.239E-02
DAV:   4    -0.248914338666E+02   -0.31547E-04   -0.53708E-04 15974   0.285E-01    0.937E-03
DAV:   5    -0.248914315124E+02    0.23543E-05   -0.80001E-06 14720   0.511E-02    0.208E-03
DAV:   6    -0.248914310417E+02    0.47062E-06   -0.57452E-07  6790   0.195E-02
  11 F= -.24891431E+02 E0= -.24891574E+02  d E =-.552602E-03
 trial-energy change:   -0.000553  1 .order   -0.000503   -0.004423    0.003416
 step:   0.4832(harm=  0.4754)  dis= 0.00000  next Energy=   -24.892156 (dE=-0.128E-02)
 bond charge predicted
       N       E                     dE             d eps       ncg     rms          rms(c)
DAV:   1    -0.248967247461E+02   -0.24897E+02   -0.18081E-01 15576   0.878E+00    0.348E-01
DAV:   2    -0.248930969773E+02    0.36278E-02   -0.63658E-03 17938   0.104E+00    0.163E-01
DAV:   3    -0.248921479487E+02    0.94903E-03   -0.31544E-03 18290   0.638E-01    0.112E-02
DAV:   4    -0.248921540432E+02   -0.60945E-05   -0.11643E-04 15990   0.138E-01    0.492E-03
DAV:   5    -0.248921545082E+02   -0.46498E-06   -0.15707E-06  7034   0.218E-02
  12 F= -.24892155E+02 E0= -.24892248E+02  d E =-.127607E-02
 curvature:  -0.24 expect dE=-0.559E-06 dE for cont linesearch -0.405E-07
 trial: gam= 0.00275 g(F)=  0.186E-44 g(S)=  0.230E-05 ort =-0.299E-04 (trialstep = 0.771E+00)
 search vector abs. value=  0.218E-05
 reached required accuracy - stopping structural energy minimisation
 writing wavefunctions
