 vasp.4.6.35 3Apr08 complex 
 POSCAR found :  1 types and    1 ions
 LDA part: xc-table for Pade appr. of Perdew
 POSCAR, INCAR and KPOINTS ok, starting setup
 WARNING: wrap around errors must be expected
 FFT: planning ...           1
 reading WAVECAR
 entering main loop
       N       E                     dE             d eps       ncg     rms          rms(c)
DAV:   1     0.409282623634E+02    0.40928E+02   -0.72420E+03 10246   0.140E+03
DAV:   2    -0.122839420776E+02   -0.53212E+02   -0.50856E+02  9740   0.434E+02
DAV:   3    -0.128179468544E+02   -0.53400E+00   -0.52675E+00  9603   0.401E+01
DAV:   4    -0.128194516490E+02   -0.15048E-02   -0.15044E-02  8548   0.133E+00
DAV:   5    -0.128194639145E+02   -0.12266E-04   -0.12265E-04  8497   0.112E-01    0.457E+00
DAV:   6    -0.122594711912E+02    0.55999E+00   -0.58202E-01 10203   0.223E+01    0.208E+00
DAV:   7    -0.121261544613E+02    0.13332E+00   -0.29688E-01 10221   0.155E+01    0.370E-01
DAV:   8    -0.121220130252E+02    0.41414E-02   -0.71466E-03  9844   0.256E+00    0.561E-02
DAV:   9    -0.121218630202E+02    0.15000E-03   -0.43405E-04 10008   0.678E-01    0.863E-03
DAV:  10    -0.121218609808E+02    0.20394E-05   -0.50748E-06  9736   0.647E-02    0.104E-03
DAV:  11    -0.121218604884E+02    0.49241E-06   -0.13578E-07  4176   0.180E-02
   1 F= -.12121860E+02 E0= -.12121817E+02  d E =-.121219E+02
 curvature:   0.00 expect dE= 0.000E+00 dE for cont linesearch  0.000E+00
 trial: gam= 0.00000 g(F)=  0.469E-62 g(S)=  0.509E-01 ort = 0.000E+00 (trialstep = 0.100E+01)
 search vector abs. value=  0.509E-01
 bond charge predicted
       N       E                     dE             d eps       ncg     rms          rms(c)
DAV:   1    -0.128881234850E+02   -0.12888E+02   -0.23766E+01  7232   0.192E+02    0.461E+00
DAV:   2    -0.121682445455E+02    0.71988E+00   -0.86049E-01  9996   0.329E+01    0.192E+00
DAV:   3    -0.120377096218E+02    0.13053E+00   -0.34949E-01  9975   0.218E+01    0.359E-01
DAV:   4    -0.120422343964E+02   -0.45248E-02   -0.84543E-03  9629   0.153E+00    0.645E-02
DAV:   5    -0.120421821903E+02    0.52206E-04   -0.60465E-04 10125   0.984E-01    0.178E-02
DAV:   6    -0.120421652729E+02    0.16917E-04   -0.10817E-05  9613   0.513E-02    0.242E-03
DAV:   7    -0.120421652210E+02    0.51897E-07   -0.19913E-07  4176   0.199E-02
   2 F= -.12042165E+02 E0= -.12042159E+02  d E =0.796953E-01
 trial-energy change:    0.079695  1 .order    0.083627   -0.050850    0.218104
 step:   0.2033(harm=  0.1891)  dis= 0.00000  next Energy=   -12.127062 (dE=-0.520E-02)
 bond charge predicted
       N       E                     dE             d eps       ncg     rms          rms(c)
DAV:   1    -0.126843886006E+02   -0.12684E+02   -0.12690E+01  8814   0.113E+02    0.378E+00
DAV:   2    -0.121928858106E+02    0.49150E+00   -0.63055E-01  9921   0.272E+01    0.142E+00
DAV:   3    -0.121239341520E+02    0.68952E-01   -0.17922E-01  9990   0.154E+01    0.291E-01
DAV:   4    -0.121272084929E+02   -0.32743E-02   -0.51082E-03  9950   0.213E+00    0.326E-02
DAV:   5    -0.121272397046E+02   -0.31212E-04   -0.53517E-05  9316   0.958E-02    0.122E-02
DAV:   6    -0.121272428478E+02   -0.31431E-05   -0.27517E-06  7711   0.681E-02    0.156E-03
DAV:   7    -0.121272427984E+02    0.49363E-07   -0.60915E-08  3873   0.763E-03
   3 F= -.12127243E+02 E0= -.12127201E+02  d E =-.538231E-02
 curvature:  -0.09 expect dE=-0.319E-05 dE for cont linesearch -0.319E-05
 ZBRENT: interpolating
 opt :   0.2080  next Energy=   -12.127246 (dE=-0.539E-02)
 bond charge predicted
       N       E                     dE             d eps       ncg     rms          rms(c)
DAV:   1    -0.121272668898E+02   -0.12127E+02   -0.48736E-04  8837   0.759E-01    0.226E-02
DAV:   2    -0.121272491259E+02    0.17764E-04   -0.22072E-05  9960   0.161E-01    0.875E-03
DAV:   3    -0.121272468637E+02    0.22622E-05   -0.72733E-06  8817   0.970E-02    0.171E-03
DAV:   4    -0.121272472853E+02   -0.42161E-06   -0.86968E-08  3780   0.970E-03
   4 F= -.12127247E+02 E0= -.12127205E+02  d E =-.538680E-02
 curvature:  -0.09 expect dE=-0.956E-07 dE for cont linesearch -0.956E-07
 trial: gam=-0.00449 g(F)=  0.121E-61 g(S)=  0.104E-05 ort = 0.229E-03 (trialstep = 0.842E+00)
 search vector abs. value=  0.121E-09
 reached required accuracy - stopping structural energy minimisation
 writing wavefunctions
