 vasp.4.6.35 3Apr08 complex 
 POSCAR found :  1 types and    8 ions
 LDA part: xc-table for Pade appr. of Perdew
 found WAVECAR, reading the header
 WAVECAR: different cutoff or change in lattice found
 POSCAR, INCAR and KPOINTS ok, starting setup
 WARNING: wrap around errors must be expected
 FFT: planning ...           1
 reading WAVECAR
 the WAVECAR file was read sucessfully
 initial charge from wavefunction
 entering main loop
       N       E                     dE             d eps       ncg     rms          rms(c)
DAV:   1    -0.977818747476E+02   -0.97782E+02   -0.18268E+00  9146   0.272E+01    0.438E-01
DAV:   2    -0.977886858530E+02   -0.68111E-02   -0.85134E-02 11893   0.365E+00    0.300E-01
DAV:   3    -0.977889968628E+02   -0.31101E-03   -0.18901E-02 10983   0.239E+00    0.153E-01
DAV:   4    -0.977881277884E+02    0.86907E-03   -0.19901E-03 11037   0.722E-01    0.722E-02
DAV:   5    -0.977880487643E+02    0.79024E-04   -0.28513E-04 11880   0.205E-01    0.496E-02
DAV:   6    -0.977879999052E+02    0.48859E-04   -0.20982E-04 11741   0.168E-01    0.139E-02
DAV:   7    -0.977879993066E+02    0.59855E-06   -0.89207E-05 12107   0.102E-01    0.429E-03
DAV:   8    -0.977879978564E+02    0.14502E-05   -0.35121E-06  6397   0.282E-02    0.236E-03
DAV:   9    -0.977879972786E+02    0.57776E-06   -0.24101E-06  5069   0.262E-02
   1 F= -.97787997E+02 E0= -.97787997E+02  d E =0.000000E+00
 writing wavefunctions
