 vasp.4.6.35 3Apr08 complex 
 POSCAR found :  1 types and    8 ions
 LDA part: xc-table for Pade appr. of Perdew
 found WAVECAR, reading the header
 WAVECAR: different cutoff or change in lattice found
 POSCAR, INCAR and KPOINTS ok, starting setup
 WARNING: wrap around errors must be expected
 FFT: planning ...           1
 reading WAVECAR
 the WAVECAR file was read sucessfully
 initial charge from wavefunction
 entering main loop
       N       E                     dE             d eps       ncg     rms          rms(c)
DAV:   1    -0.980794966581E+02   -0.98079E+02   -0.20218E+00  9144   0.290E+01    0.459E-01
DAV:   2    -0.980875847294E+02   -0.80881E-02   -0.97436E-02 11918   0.387E+00    0.316E-01
DAV:   3    -0.980876963829E+02   -0.11165E-03   -0.18729E-02 11029   0.240E+00    0.151E-01
DAV:   4    -0.980869648160E+02    0.73157E-03   -0.19192E-03 11245   0.731E-01    0.719E-02
DAV:   5    -0.980868599680E+02    0.10485E-03   -0.34423E-04 11597   0.240E-01    0.496E-02
DAV:   6    -0.980868257249E+02    0.34243E-04   -0.31404E-04 12090   0.189E-01    0.165E-02
DAV:   7    -0.980868316676E+02   -0.59427E-05   -0.35007E-05 11708   0.669E-02    0.900E-03
DAV:   8    -0.980868309122E+02    0.75540E-06   -0.19641E-06  5393   0.244E-02
   1 F= -.98086831E+02 E0= -.98086831E+02  d E =0.000000E+00
 writing wavefunctions
