 vasp.4.6.35 3Apr08 complex 
 POSCAR found :  1 types and    8 ions
 LDA part: xc-table for Pade appr. of Perdew
 POSCAR, INCAR and KPOINTS ok, starting setup
 WARNING: wrap around errors must be expected
 FFT: planning ...           1
 reading WAVECAR
 entering main loop
       N       E                     dE             d eps       ncg     rms          rms(c)
DAV:   1     0.171968768072E+04    0.17197E+04   -0.44073E+04 12755   0.217E+03
DAV:   2     0.823624747834E+02   -0.16373E+04   -0.15792E+04 13016   0.167E+03
DAV:   3    -0.772415029656E+02   -0.15960E+03   -0.14336E+03 14096   0.623E+02
DAV:   4    -0.100393402124E+03   -0.23152E+02   -0.21153E+02 13830   0.163E+02
DAV:   5    -0.102671943738E+03   -0.22785E+01   -0.21336E+01 12550   0.631E+01    0.126E+01
DAV:   6    -0.989345141399E+02    0.37374E+01   -0.97714E+00 11909   0.344E+01    0.587E+00
DAV:   7    -0.981469939443E+02    0.78752E+00   -0.49943E+00 12643   0.301E+01    0.306E+00
DAV:   8    -0.978787907580E+02    0.26820E+00   -0.13289E+00 13055   0.187E+01    0.626E-01
DAV:   9    -0.978695883210E+02    0.92024E-02   -0.13906E-01 11650   0.458E+00    0.118E-01
DAV:  10    -0.978712144384E+02   -0.16261E-02   -0.17289E-02 13560   0.112E+00    0.647E-02
DAV:  11    -0.978712713685E+02   -0.56930E-04   -0.16166E-03 12815   0.531E-01    0.299E-02
DAV:  12    -0.978712660004E+02    0.53681E-05   -0.27363E-04 12655   0.211E-01    0.517E-03
DAV:  13    -0.978712589602E+02    0.70402E-05   -0.36719E-05 11263   0.634E-02    0.170E-03
DAV:  14    -0.978712576700E+02    0.12902E-05   -0.26910E-06  6695   0.185E-02    0.789E-04
DAV:  15    -0.978712584888E+02   -0.81882E-06   -0.74517E-07  6264   0.153E-02
   1 F= -.97871258E+02 E0= -.97871258E+02  d E =0.000000E+00
 writing wavefunctions
