 vasp.4.6.35 3Apr08 complex 
 POSCAR found :  1 types and    8 ions
 LDA part: xc-table for Pade appr. of Perdew
 found WAVECAR, reading the header
 WAVECAR: different cutoff or change in lattice found
 POSCAR, INCAR and KPOINTS ok, starting setup
 WARNING: wrap around errors must be expected
 FFT: planning ...           1
 reading WAVECAR
 the WAVECAR file was read sucessfully
 initial charge from wavefunction
 entering main loop
       N       E                     dE             d eps       ncg     rms          rms(c)
DAV:   1    -0.980415806613E+02   -0.98042E+02   -0.20540E+00  9186   0.293E+01    0.462E-01
DAV:   2    -0.980499489568E+02   -0.83683E-02   -0.99645E-02 12034   0.393E+00    0.319E-01
DAV:   3    -0.980498667410E+02    0.82216E-04   -0.17464E-02 11139   0.236E+00    0.138E-01
DAV:   4    -0.980492764312E+02    0.59031E-03   -0.16597E-03 11403   0.677E-01    0.685E-02
DAV:   5    -0.980491875141E+02    0.88917E-04   -0.25831E-04 11581   0.212E-01    0.458E-02
DAV:   6    -0.980491648115E+02    0.22703E-04   -0.20336E-04 12012   0.172E-01    0.168E-02
DAV:   7    -0.980491675411E+02   -0.27296E-05   -0.39529E-05 11532   0.637E-02    0.453E-03
DAV:   8    -0.980491691991E+02   -0.16580E-05   -0.69021E-06  6604   0.379E-02    0.110E-03
DAV:   9    -0.980491689256E+02    0.27345E-06   -0.10362E-06  5116   0.219E-02
   1 F= -.98049169E+02 E0= -.98049169E+02  d E =0.000000E+00
 writing wavefunctions
