 vasp.4.6.35 3Apr08 complex 
 POSCAR found :  1 types and    8 ions
 LDA part: xc-table for Pade appr. of Perdew
 found WAVECAR, reading the header
 WAVECAR: different cutoff or change in lattice found
 POSCAR, INCAR and KPOINTS ok, starting setup
 WARNING: wrap around errors must be expected
 FFT: planning ...           1
 reading WAVECAR
 the WAVECAR file was read sucessfully
 initial charge from wavefunction
 entering main loop
       N       E                     dE             d eps       ncg     rms          rms(c)
DAV:   1    -0.979684907161E+02   -0.97968E+02   -0.20920E+00  9523   0.296E+01    0.466E-01
DAV:   2    -0.979770887281E+02   -0.85980E-02   -0.10201E-01 12334   0.396E+00    0.322E-01
DAV:   3    -0.979768905568E+02    0.19817E-03   -0.16703E-02 11220   0.232E+00    0.128E-01
DAV:   4    -0.979763808072E+02    0.50975E-03   -0.15759E-03 11511   0.652E-01    0.625E-02
DAV:   5    -0.979763020295E+02    0.78778E-04   -0.24702E-04 11998   0.213E-01    0.418E-02
DAV:   6    -0.979762968505E+02    0.51790E-05   -0.12231E-04 11720   0.131E-01    0.115E-02
DAV:   7    -0.979762999022E+02   -0.30517E-05   -0.54554E-05 12046   0.807E-02    0.306E-03
DAV:   8    -0.979762985523E+02    0.13499E-05   -0.15153E-06  5576   0.234E-02    0.139E-03
DAV:   9    -0.979762979069E+02    0.64544E-06   -0.13802E-06  5263   0.217E-02
   1 F= -.97976298E+02 E0= -.97976298E+02  d E =0.000000E+00
 writing wavefunctions
