 vasp.4.6.35 3Apr08 complex 
 POSCAR found :  1 types and    1 ions
 LDA part: xc-table for Pade appr. of Perdew
 found WAVECAR, reading the header
 WAVECAR: different cutoff or change in lattice found
 POSCAR, INCAR and KPOINTS ok, starting setup
 WARNING: wrap around errors must be expected
 FFT: planning ...           1
 reading WAVECAR
 the WAVECAR file was read sucessfully
 initial charge from wavefunction
 entering main loop
       N       E                     dE             d eps       ncg     rms          rms(c)
DAV:   1    -0.123674475500E+02   -0.12367E+02   -0.25592E-01  6231   0.216E+01    0.199E-01
DAV:   2    -0.123667483343E+02    0.69922E-03   -0.19466E-03 10061   0.128E+00    0.105E-01
DAV:   3    -0.123666972933E+02    0.51041E-04   -0.33705E-04  9828   0.674E-01    0.445E-02
DAV:   4    -0.123667422458E+02   -0.44952E-04   -0.15691E-05  9546   0.122E-01    0.162E-03
DAV:   5    -0.123667423357E+02   -0.89920E-07   -0.13536E-07  4087   0.135E-02
   1 F= -.12366742E+02 E0= -.12366742E+02  d E =0.000000E+00
 writing wavefunctions
