 vasp.4.6.35 3Apr08 complex 
 POSCAR found :  1 types and    1 ions
 LDA part: xc-table for Pade appr. of Perdew
 found WAVECAR, reading the header
 WAVECAR: different cutoff or change in lattice found
 POSCAR, INCAR and KPOINTS ok, starting setup
 WARNING: wrap around errors must be expected
 FFT: planning ...           1
 reading WAVECAR
 the WAVECAR file was read sucessfully
 initial charge from wavefunction
 entering main loop
       N       E                     dE             d eps       ncg     rms          rms(c)
DAV:   1    -0.123822303083E+02   -0.12382E+02   -0.24704E-01  6178   0.212E+01    0.196E-01
DAV:   2    -0.123815451858E+02    0.68512E-03   -0.18997E-03 10046   0.126E+00    0.103E-01
DAV:   3    -0.123814983843E+02    0.46802E-04   -0.32180E-04  9789   0.654E-01    0.440E-02
DAV:   4    -0.123815431746E+02   -0.44790E-04   -0.15249E-05  9579   0.119E-01    0.151E-03
DAV:   5    -0.123815432029E+02   -0.28277E-07   -0.13077E-07  3861   0.135E-02
   1 F= -.12381543E+02 E0= -.12381543E+02  d E =0.000000E+00
 writing wavefunctions
