 vasp.4.6.35 3Apr08 complex 
 POSCAR found :  1 types and    1 ions
 LDA part: xc-table for Pade appr. of Perdew
 found WAVECAR, reading the header
 WAVECAR: different cutoff or change in lattice found
 POSCAR, INCAR and KPOINTS ok, starting setup
 WARNING: wrap around errors must be expected
 FFT: planning ...           1
 reading WAVECAR
 the WAVECAR file was read sucessfully
 initial charge from wavefunction
 entering main loop
       N       E                     dE             d eps       ncg     rms          rms(c)
DAV:   1    -0.123453799210E+02   -0.12345E+02   -0.22342E-01  6160   0.200E+01    0.189E-01
DAV:   2    -0.123446558784E+02    0.72404E-03   -0.18385E-03 10071   0.123E+00    0.974E-02
DAV:   3    -0.123446445903E+02    0.11288E-04   -0.28782E-04  9825   0.609E-01    0.428E-02
DAV:   4    -0.123446929613E+02   -0.48371E-04   -0.13871E-05  9583   0.123E-01    0.175E-03
DAV:   5    -0.123446939423E+02   -0.98101E-06   -0.10624E-07  3721   0.526E-03
   1 F= -.12344694E+02 E0= -.12344694E+02  d E =0.000000E+00
 writing wavefunctions
