 vasp.4.6.35 3Apr08 complex 
 POSCAR found :  1 types and    1 ions
 LDA part: xc-table for Pade appr. of Perdew
 found WAVECAR, reading the header
 WAVECAR: different cutoff or change in lattice found
 POSCAR, INCAR and KPOINTS ok, starting setup
 WARNING: wrap around errors must be expected
 FFT: planning ...           1
 reading WAVECAR
 the WAVECAR file was read sucessfully
 initial charge from wavefunction
 entering main loop
       N       E                     dE             d eps       ncg     rms          rms(c)
DAV:   1    -0.123776914095E+02   -0.12378E+02   -0.23465E-01  6166   0.205E+01    0.193E-01
DAV:   2    -0.123769716476E+02    0.71976E-03   -0.18673E-03 10075   0.125E+00    0.100E-01
DAV:   3    -0.123768803729E+02    0.91275E-04   -0.30240E-04  9825   0.629E-01    0.436E-02
DAV:   4    -0.123769177615E+02   -0.37389E-04   -0.15631E-05  9566   0.110E-01    0.158E-03
DAV:   5    -0.123769153994E+02    0.23622E-05   -0.23422E-07  3803   0.204E-02    0.397E-04
DAV:   6    -0.123769152654E+02    0.13401E-06   -0.11334E-07  3455   0.811E-03
   1 F= -.12376915E+02 E0= -.12376915E+02  d E =0.000000E+00
 writing wavefunctions
