 vasp.4.6.35 3Apr08 complex 
 POSCAR found :  1 types and    1 ions
 LDA part: xc-table for Pade appr. of Perdew
 found WAVECAR, reading the header
 WAVECAR: different cutoff or change in lattice found
 POSCAR, INCAR and KPOINTS ok, starting setup
 WARNING: wrap around errors must be expected
 FFT: planning ...           1
 reading WAVECAR
 the WAVECAR file was read sucessfully
 initial charge from wavefunction
 entering main loop
       N       E                     dE             d eps       ncg     rms          rms(c)
DAV:   1    -0.123767477837E+02   -0.12377E+02   -0.25132E-01  6175   0.214E+01    0.197E-01
DAV:   2    -0.123760618147E+02    0.68597E-03   -0.19067E-03 10063   0.126E+00    0.104E-01
DAV:   3    -0.123760140572E+02    0.47758E-04   -0.32699E-04  9783   0.662E-01    0.443E-02
DAV:   4    -0.123760589863E+02   -0.44929E-04   -0.15460E-05  9565   0.120E-01    0.155E-03
DAV:   5    -0.123760590215E+02   -0.35238E-07   -0.13530E-07  3901   0.137E-02
   1 F= -.12376059E+02 E0= -.12376059E+02  d E =0.000000E+00
 writing wavefunctions
