 vasp.4.6.35 3Apr08 complex 
 POSCAR found :  1 types and    1 ions
 LDA part: xc-table for Pade appr. of Perdew
 found WAVECAR, reading the header
 WAVECAR: different cutoff or change in lattice found
 POSCAR, INCAR and KPOINTS ok, starting setup
 WARNING: wrap around errors must be expected
 FFT: planning ...           1
 reading WAVECAR
 the WAVECAR file was read sucessfully
 initial charge from wavefunction
 entering main loop
       N       E                     dE             d eps       ncg     rms          rms(c)
DAV:   1    -0.123825129192E+02   -0.12383E+02   -0.23884E-01  6163   0.207E+01    0.193E-01
DAV:   2    -0.123818265427E+02    0.68638E-03   -0.18798E-03 10061   0.125E+00    0.101E-01
DAV:   3    -0.123817576082E+02    0.68935E-04   -0.31175E-04  9810   0.640E-01    0.436E-02
DAV:   4    -0.123817973474E+02   -0.39739E-04   -0.15536E-05  9579   0.111E-01    0.154E-03
DAV:   5    -0.123817957025E+02    0.16449E-05   -0.21491E-07  3794   0.194E-02    0.400E-04
DAV:   6    -0.123817957203E+02   -0.17771E-07   -0.10184E-07  3530   0.781E-03
   1 F= -.12381796E+02 E0= -.12381796E+02  d E =0.000000E+00
 writing wavefunctions
