 vasp.4.6.35 3Apr08 complex 
 POSCAR found :  1 types and    1 ions
 LDA part: xc-table for Pade appr. of Perdew
 found WAVECAR, reading the header
 WAVECAR: different cutoff or change in lattice found
 POSCAR, INCAR and KPOINTS ok, starting setup
 WARNING: wrap around errors must be expected
 FFT: planning ...           1
 reading WAVECAR
 the WAVECAR file was read sucessfully
 initial charge from wavefunction
 entering main loop
       N       E                     dE             d eps       ncg     rms          rms(c)
DAV:   1    -0.123698002429E+02   -0.12370E+02   -0.23078E-01  6172   0.203E+01    0.192E-01
DAV:   2    -0.123690324765E+02    0.76777E-03   -0.18678E-03 10047   0.125E+00    0.991E-02
DAV:   3    -0.123689394523E+02    0.93024E-04   -0.29143E-04  9810   0.616E-01    0.436E-02
DAV:   4    -0.123689912148E+02   -0.51762E-04   -0.15091E-05  9565   0.115E-01    0.142E-03
DAV:   5    -0.123689913105E+02   -0.95702E-07   -0.17127E-07  3818   0.168E-02
   1 F= -.12368991E+02 E0= -.12368991E+02  d E =0.000000E+00
 writing wavefunctions
