 vasp.4.6.35 3Apr08 complex 
 POSCAR found :  1 types and    1 ions
 LDA part: xc-table for Pade appr. of Perdew
 found WAVECAR, reading the header
 WAVECAR: different cutoff or change in lattice found
 POSCAR, INCAR and KPOINTS ok, starting setup
 WARNING: wrap around errors must be expected
 FFT: planning ...           1
 reading WAVECAR
 the WAVECAR file was read sucessfully
 initial charge from wavefunction
 entering main loop
       N       E                     dE             d eps       ncg     rms          rms(c)
DAV:   1    -0.123840813179E+02   -0.12384E+02   -0.24279E-01  6166   0.210E+01    0.195E-01
DAV:   2    -0.123833956996E+02    0.68562E-03   -0.18772E-03 10081   0.125E+00    0.102E-01
DAV:   3    -0.123833489051E+02    0.46795E-04   -0.31622E-04  9804   0.647E-01    0.438E-02
DAV:   4    -0.123833918293E+02   -0.42924E-04   -0.15071E-05  9594   0.117E-01    0.144E-03
DAV:   5    -0.123833916630E+02    0.16636E-06   -0.12877E-07  3886   0.134E-02
   1 F= -.12383392E+02 E0= -.12383392E+02  d E =0.000000E+00
 writing wavefunctions
