 vasp.4.6.35 3Apr08 complex 
 POSCAR found :  1 types and    2 ions
 LDA part: xc-table for Pade appr. of Perdew
 POSCAR, INCAR and KPOINTS ok, starting setup
 WARNING: wrap around errors must be expected
 FFT: planning ...           1
 reading WAVECAR
 entering main loop
       N       E                     dE             d eps       ncg     rms          rms(c)
DAV:   1     0.148501926454E+03    0.14850E+03   -0.14320E+04 24800   0.190E+03
DAV:   2    -0.206544215813E+02   -0.16916E+03   -0.16457E+03 21530   0.826E+02
DAV:   3    -0.259823098322E+02   -0.53279E+01   -0.49452E+01 20402   0.185E+02
DAV:   4    -0.261167090578E+02   -0.13440E+00   -0.13095E+00 22312   0.147E+01
DAV:   5    -0.261184188587E+02   -0.17098E-02   -0.16749E-02 20738   0.215E+00    0.617E+00
DAV:   6    -0.251004145489E+02    0.10180E+01   -0.13237E+00 22692   0.253E+01    0.276E+00
DAV:   7    -0.248381749276E+02    0.26224E+00   -0.80409E-01 22660   0.186E+01    0.331E-01
DAV:   8    -0.248307666686E+02    0.74083E-02   -0.29673E-02 20244   0.368E+00    0.115E-01
DAV:   9    -0.248303756282E+02    0.39104E-03   -0.21695E-03 21788   0.111E+00    0.128E-02
DAV:  10    -0.248303885690E+02   -0.12941E-04   -0.66971E-05 22084   0.164E-01    0.629E-03
DAV:  11    -0.248303806490E+02    0.79201E-05   -0.14874E-06  8456   0.385E-02    0.805E-04
DAV:  12    -0.248303791730E+02    0.14760E-05   -0.12661E-06  7942   0.217E-02    0.553E-04
DAV:  13    -0.248303790139E+02    0.15906E-06   -0.64487E-07  7562   0.357E-02
   1 F= -.24830379E+02 E0= -.24830379E+02  d E =0.000000E+00
 writing wavefunctions
