 vasp.4.6.35 3Apr08 complex 
 POSCAR found :  1 types and    2 ions
 LDA part: xc-table for Pade appr. of Perdew
 found WAVECAR, reading the header
 WAVECAR: different cutoff or change in lattice found
 POSCAR, INCAR and KPOINTS ok, starting setup
 WARNING: wrap around errors must be expected
 FFT: planning ...           1
 reading WAVECAR
 the WAVECAR file was read sucessfully
 initial charge from wavefunction
 entering main loop
       N       E                     dE             d eps       ncg     rms          rms(c)
DAV:   1    -0.248753245299E+02   -0.24875E+02   -0.51007E-01 14426   0.262E+01    0.247E-01
DAV:   2    -0.248761987909E+02   -0.87426E-03   -0.17124E-02 19424   0.221E+00    0.160E-01
DAV:   3    -0.248762379334E+02   -0.39143E-04   -0.56687E-03 19638   0.198E+00    0.861E-02
DAV:   4    -0.248760762970E+02    0.16164E-03   -0.21667E-04 20204   0.328E-01    0.589E-02
DAV:   5    -0.248760001933E+02    0.76104E-04   -0.38701E-04 20688   0.439E-01    0.514E-03
DAV:   6    -0.248760031956E+02   -0.30024E-05   -0.71143E-06 13936   0.515E-02    0.136E-03
DAV:   7    -0.248760030479E+02    0.14777E-06   -0.47096E-07  7056   0.156E-02
   1 F= -.24876003E+02 E0= -.24876003E+02  d E =0.000000E+00
 writing wavefunctions
