 vasp.4.6.35 3Apr08 complex 
 POSCAR found :  1 types and    2 ions
 LDA part: xc-table for Pade appr. of Perdew
 found WAVECAR, reading the header
 WAVECAR: different cutoff or change in lattice found
 POSCAR, INCAR and KPOINTS ok, starting setup
 WARNING: wrap around errors must be expected
 FFT: planning ...           1
 reading WAVECAR
 the WAVECAR file was read sucessfully
 initial charge from wavefunction
 entering main loop
       N       E                     dE             d eps       ncg     rms          rms(c)
DAV:   1    -0.248869463849E+02   -0.24887E+02   -0.48581E-01 14342   0.254E+01    0.242E-01
DAV:   2    -0.248877180516E+02   -0.77167E-03   -0.16426E-02 19544   0.218E+00    0.156E-01
DAV:   3    -0.248877533939E+02   -0.35342E-04   -0.55265E-03 19588   0.193E+00    0.839E-02
DAV:   4    -0.248876182034E+02    0.13519E-03   -0.17306E-04 20256   0.278E-01    0.615E-02
DAV:   5    -0.248875280964E+02    0.90107E-04   -0.43549E-04 20620   0.463E-01    0.519E-03
DAV:   6    -0.248875310400E+02   -0.29436E-05   -0.80857E-06 14246   0.536E-02    0.144E-03
DAV:   7    -0.248875308185E+02    0.22145E-06   -0.48933E-07  6980   0.169E-02
   1 F= -.24887531E+02 E0= -.24887531E+02  d E =0.000000E+00
 writing wavefunctions
