 vasp.4.6.35 3Apr08 complex 
 POSCAR found :  1 types and    8 ions
 LDA part: xc-table for Pade appr. of Perdew
 POSCAR, INCAR and KPOINTS ok, starting setup
 WARNING: wrap around errors must be expected
 FFT: planning ...           5
 reading WAVECAR
 entering main loop
       N       E                     dE             d eps       ncg     rms          rms(c)
DAV:   1     0.169998351128E+04    0.17000E+04   -0.44111E+04 12703   0.213E+03
DAV:   2     0.810197426809E+02   -0.16190E+04   -0.15618E+04 13031   0.166E+03
DAV:   3    -0.775125647584E+02   -0.15853E+03   -0.14205E+03 14147   0.613E+02
DAV:   4    -0.100858097821E+03   -0.23346E+02   -0.21455E+02 13639   0.164E+02
DAV:   5    -0.103183879640E+03   -0.23258E+01   -0.21821E+01 12510   0.617E+01    0.128E+01
DAV:   6    -0.991329047626E+02    0.40510E+01   -0.11203E+01 11958   0.361E+01    0.584E+00
DAV:   7    -0.984385564614E+02    0.69435E+00   -0.55698E+00 12748   0.310E+01    0.353E+00
DAV:   8    -0.980901486269E+02    0.34841E+00   -0.16450E+00 13019   0.200E+01    0.681E-01
DAV:   9    -0.980840982559E+02    0.60504E-02   -0.16728E-01 11774   0.464E+00    0.146E-01
DAV:  10    -0.980857330307E+02   -0.16348E-02   -0.18383E-02 13799   0.107E+00    0.594E-02
DAV:  11    -0.980858346950E+02   -0.10166E-03   -0.16380E-03 12863   0.402E-01    0.264E-02
DAV:  12    -0.980858320131E+02    0.26819E-05   -0.30925E-04 12407   0.205E-01    0.428E-03
DAV:  13    -0.980858295735E+02    0.24396E-05   -0.36409E-05  9999   0.548E-02    0.196E-03
DAV:  14    -0.980858280362E+02    0.15373E-05   -0.43599E-06  6608   0.195E-02    0.689E-04
DAV:  15    -0.980858282414E+02   -0.20526E-06   -0.14128E-06  6311   0.210E-02
   1 F= -.98085828E+02 E0= -.98083917E+02  d E =-.980858E+02
 curvature:   0.00 expect dE= 0.000E+00 dE for cont linesearch  0.000E+00
 trial: gam= 0.00000 g(F)=  0.151E-44 g(S)=  0.174E+00 ort = 0.000E+00 (trialstep = 0.100E+01)
 search vector abs. value=  0.174E+00
 bond charge predicted
       N       E                     dE             d eps       ncg     rms          rms(c)
DAV:   1    -0.999845854478E+02   -0.99985E+02   -0.80607E+01 10274   0.160E+02    0.748E+00
DAV:   2    -0.984219795684E+02    0.15626E+01   -0.60748E+00 10972   0.380E+01    0.387E+00
DAV:   3    -0.978170945599E+02    0.60489E+00   -0.28391E+00 10916   0.268E+01    0.965E-01
DAV:   4    -0.978126432354E+02    0.44513E-02   -0.22346E-01 11688   0.652E+00    0.538E-01
DAV:   5    -0.978127610231E+02   -0.11779E-03   -0.21072E-02 11328   0.177E+00    0.400E-01
DAV:   6    -0.978174771752E+02   -0.47162E-02   -0.15462E-02 11949   0.937E-01    0.106E-01
DAV:   7    -0.978173141849E+02    0.16299E-03   -0.20381E-03 12062   0.686E-01    0.288E-02
DAV:   8    -0.978173489866E+02   -0.34802E-04   -0.40050E-04 12438   0.172E-01    0.115E-02
DAV:   9    -0.978173457820E+02    0.32046E-05   -0.49529E-05 11807   0.746E-02    0.264E-03
DAV:  10    -0.978173448972E+02    0.88484E-06   -0.27384E-06  6280   0.270E-02
   2 F= -.97817345E+02 E0= -.97815880E+02  d E =0.268483E+00
 trial-energy change:    0.268483  1 .order    0.276642   -0.174450    0.727733
 step:   0.2021(harm=  0.1934)  dis= 0.00000  next Energy=   -98.103525 (dE=-0.177E-01)
 bond charge predicted
       N       E                     dE             d eps       ncg     rms          rms(c)
DAV:   1    -0.995402900038E+02   -0.99540E+02   -0.46842E+01 10629   0.104E+02    0.603E+00
DAV:   2    -0.984711963554E+02    0.10691E+01   -0.38202E+00 10936   0.312E+01    0.304E+00
DAV:   3    -0.981140996424E+02    0.35710E+00   -0.18373E+00 10930   0.214E+01    0.980E-01
DAV:   4    -0.981017440208E+02    0.12356E-01   -0.17838E-01 11805   0.631E+00    0.459E-01
DAV:   5    -0.981010696982E+02    0.67432E-03   -0.18417E-02 11434   0.155E+00    0.293E-01
DAV:   6    -0.981041261610E+02   -0.30565E-02   -0.97658E-03 11884   0.738E-01    0.795E-02
DAV:   7    -0.981039869386E+02    0.13922E-03   -0.17184E-03 11827   0.560E-01    0.144E-02
DAV:   8    -0.981040200998E+02   -0.33161E-04   -0.25632E-04 12728   0.151E-01    0.643E-03
DAV:   9    -0.981040240067E+02   -0.39069E-05   -0.32115E-05 10293   0.543E-02    0.193E-03
DAV:  10    -0.981040255374E+02   -0.15307E-05   -0.17002E-06  5901   0.192E-02    0.103E-03
DAV:  11    -0.981040257613E+02   -0.22392E-06   -0.68676E-07  5189   0.217E-02
   3 F= -.98104026E+02 E0= -.98102230E+02  d E =-.181975E-01
 curvature:  -0.10 expect dE=-0.522E-05 dE for cont linesearch -0.522E-05
 trial: gam=-0.01729 g(F)=  0.250E-44 g(S)=  0.540E-04 ort = 0.307E-02 (trialstep = 0.840E+00)
 search vector abs. value=  0.168E-07
 reached required accuracy - stopping structural energy minimisation
 writing wavefunctions
