 vasp.4.6.35 3Apr08 complex 
 POSCAR found :  1 types and    1 ions
 LDA part: xc-table for Pade appr. of Perdew
 POSCAR, INCAR and KPOINTS ok, starting setup
 WARNING: wrap around errors must be expected
 FFT: planning ...           1
 reading WAVECAR
 entering main loop
       N       E                     dE             d eps       ncg     rms          rms(c)
DAV:   1     0.409028557898E+02    0.40903E+02   -0.72953E+03 10107   0.139E+03
DAV:   2    -0.125713115907E+02   -0.53474E+02   -0.51110E+02  9564   0.441E+02
DAV:   3    -0.130773705147E+02   -0.50606E+00   -0.50370E+00  9618   0.388E+01
DAV:   4    -0.130785418982E+02   -0.11714E-02   -0.11712E-02  8376   0.122E+00
DAV:   5    -0.130785545216E+02   -0.12623E-04   -0.12622E-04  8324   0.113E-01    0.447E+00
DAV:   6    -0.125134979325E+02    0.56506E+00   -0.60367E-01 10026   0.225E+01    0.198E+00
DAV:   7    -0.123767720467E+02    0.13673E+00   -0.30903E-01 10050   0.157E+01    0.275E-01
DAV:   8    -0.123726252461E+02    0.41468E-02   -0.81327E-03  9949   0.278E+00    0.894E-02
DAV:   9    -0.123723592841E+02    0.26596E-03   -0.66267E-04 10032   0.756E-01    0.995E-03
DAV:  10    -0.123723592340E+02    0.50090E-07   -0.92728E-06  9621   0.373E-02
   1 F= -.12372359E+02 E0= -.12372170E+02  d E =-.123724E+02
 curvature:   0.00 expect dE= 0.000E+00 dE for cont linesearch  0.000E+00
 trial: gam= 0.00000 g(F)=  0.141E-62 g(S)=  0.104E+00 ort = 0.000E+00 (trialstep = 0.100E+01)
 search vector abs. value=  0.104E+00
 bond charge predicted
       N       E                     dE             d eps       ncg     rms          rms(c)
DAV:   1    -0.138969921303E+02   -0.13897E+02   -0.52026E+01  6699   0.298E+02    0.654E+00
DAV:   2    -0.124636062207E+02    0.14334E+01   -0.16807E+00  9837   0.473E+01    0.281E+00
DAV:   3    -0.121862654479E+02    0.27734E+00   -0.78087E-01  9690   0.323E+01    0.527E-01
DAV:   4    -0.121969867461E+02   -0.10721E-01   -0.21662E-02  9118   0.192E+00    0.164E-01
DAV:   5    -0.121959297652E+02    0.10570E-02   -0.39753E-03  9930   0.234E+00    0.274E-02
DAV:   6    -0.121958950330E+02    0.34732E-04   -0.43756E-05  9786   0.152E-01    0.516E-03
DAV:   7    -0.121958946432E+02    0.38971E-06   -0.82685E-07  4963   0.428E-02
   2 F= -.12195895E+02 E0= -.12195728E+02  d E =0.176465E+00
 trial-energy change:    0.176465  1 .order    0.187258   -0.103594    0.478110
 step:   0.1956(harm=  0.1781)  dis= 0.00000  next Energy=   -12.382572 (dE=-0.102E-01)
 bond charge predicted
       N       E                     dE             d eps       ncg     rms          rms(c)
DAV:   1    -0.135380902782E+02   -0.13538E+02   -0.26112E+01  8919   0.154E+02    0.549E+00
DAV:   2    -0.125125683422E+02    0.10255E+01   -0.13676E+00  9663   0.395E+01    0.201E+00
DAV:   3    -0.123753424403E+02    0.13723E+00   -0.36311E-01  9711   0.218E+01    0.421E-01
DAV:   4    -0.123828176708E+02   -0.74752E-02   -0.10098E-02  9594   0.351E+00    0.809E-02
DAV:   5    -0.123828187446E+02   -0.10738E-05   -0.42767E-04  9999   0.446E-01    0.147E-02
DAV:   6    -0.123828174946E+02    0.12500E-05   -0.85375E-06  9369   0.872E-02    0.211E-03
DAV:   7    -0.123828152637E+02    0.22308E-05   -0.57564E-08  3917   0.445E-03    0.622E-04
DAV:   8    -0.123828151219E+02    0.14181E-06   -0.60434E-08  3683   0.534E-03
   3 F= -.12382815E+02 E0= -.12382611E+02  d E =-.104559E-01
 curvature:  -0.09 expect dE=-0.118E-04 dE for cont linesearch -0.118E-04
 ZBRENT: interpolating
 opt :   0.2018  next Energy=   -12.382827 (dE=-0.105E-01)
 bond charge predicted
       N       E                     dE             d eps       ncg     rms          rms(c)
DAV:   1    -0.123828970125E+02   -0.12383E+02   -0.16649E-03  8711   0.141E+00    0.421E-02
DAV:   2    -0.123828379071E+02    0.59105E-04   -0.76607E-05  9711   0.298E-01    0.159E-02
DAV:   3    -0.123828291943E+02    0.87128E-05   -0.22503E-05  9648   0.171E-01    0.354E-03
DAV:   4    -0.123828292532E+02   -0.58903E-07   -0.30437E-07  3820   0.198E-02
   4 F= -.12382829E+02 E0= -.12382625E+02  d E =-.104700E-01
 curvature:  -0.09 expect dE=-0.216E-06 dE for cont linesearch -0.216E-06
 trial: gam=-0.00489 g(F)=  0.501E-63 g(S)=  0.250E-05 ort = 0.509E-03 (trialstep = 0.840E+00)
 search vector abs. value=  0.160E-09
 reached required accuracy - stopping structural energy minimisation
 writing wavefunctions
